data_Copper_(ICSD_#655129)_1

_audit_creation_date               2014-07-16
_audit_creation_method             'generated by MedeA 2.14.1'

_chemical_formula_sum              'Cu'

_symmetry_space_group_name_H-M     'FM-3M'
_symmetry_Int_Tables_number        225

_cell_length_a                     3.60780
_cell_length_b                     3.60780
_cell_length_c                     3.60780
_cell_angle_alpha                  90.00
_cell_angle_beta                   90.00
_cell_angle_gamma                  90.00
_cell_volume                       46.96
_cell_formula_units_Z              4

loop_
_atom_site_label
_atom_site_symmetry_multiplicity
_atom_site_Wyckoff_symbol
_atom_site_fract_x
_atom_site_fract_y
_atom_site_fract_z
_atom_site_occupancy
Cu1      4 a   0.00000   0.00000   0.00000 1.0
