data_Silicon_(ICSD_#53782)_1
 
_audit_creation_date               2014-11-20
_audit_creation_method             'generated by MedeA 2.14.1'
 
_chemical_formula_sum              'Si'
 
_symmetry_space_group_name_H-M     'FD-3MO1'
_symmetry_Int_Tables_number        227
 
_cell_length_a                     5.43000
_cell_length_b                     5.43000
_cell_length_c                     5.43000
_cell_angle_alpha                  90.00
_cell_angle_beta                   90.00
_cell_angle_gamma                  90.00
_cell_volume                       160.10
_cell_formula_units_Z              8
 
loop_
_atom_site_label
_atom_site_symmetry_multiplicity
_atom_site_Wyckoff_symbol
_atom_site_fract_x
_atom_site_fract_y
_atom_site_fract_z
_atom_site_occupancy
Si1      8 a   0.00000   0.00000   0.00000 1.0
